% Model:              MagneticMultiturnCoil.mph
% Version:            COMSOL 5.6.0.401
% Date:               Jun 16 2022, 15:05
% Dimension:          3
% Nodes:              28344
% Expressions:        3
% Description:        Arrow volume
% rev1x                   rev1y                    rev1z                    VectorX                  VectorY                  VectorZ
-0.026666666666666616     -0.13307023045710287     -0.7866666666666667      -0.002521612725304916    0                        -3.699717276162829E-4
0.026666666666666616      -0.13307023045710287     -0.7866666666666667      -0.002521612725304916    0                        -3.699717276162829E-4
-0.07999999999999996      -0.07984213827426168     -0.7866666666666667      -0.0021634073283451423   0                        -1.5019200337778907E-4
-0.026666666666666616     -0.07984213827426168     -0.7866666666666667      -0.0016521462201883328   0                        1.7065229712075663E-4
0.026666666666666616      -0.07984213827426168     -0.7866666666666667      -0.0016521462201883328   0                        1.7065229712075663E-4
0.07999999999999996       -0.07984213827426168     -0.7866666666666667      -0.0021634073283451423   0                        -1.5019200337778907E-4
-0.1333333333333333       -0.026614046091420596    -0.7866666666666667      -0.0025256170833176743   0                        -3.730769637459271E-4
-0.07999999999999996      -0.026614046091420596    -0.7866666666666667      -0.001654648866819093    0                        1.6954551696894376E-4
-0.026666666666666616     -0.026614046091420596    -0.7866666666666667      -7.576739875765151E-4    0                        4.5299959028815477E-4
0.026666666666666616      -0.026614046091420596    -0.7866666666666667      -7.576739875765158E-4    0                        4.529995902881647E-4
0.07999999999999996       -0.026614046091420596    -0.7866666666666667      -0.0016546488668190854   0                        1.695455169689315E-4
0.1333333333333333        -0.026614046091420596    -0.7866666666666667      -0.0025256170833176743   0                        -3.730769637459271E-4
-0.1333333333333333       0.026614046091420596     -0.7866666666666667      -0.0025256170833176743   0                        -3.730769637459271E-4
-0.07999999999999996      0.026614046091420596     -0.7866666666666667      -0.001654648866819093    0                        1.6954551696894376E-4
-0.026666666666666616     0.026614046091420596     -0.7866666666666667      -7.576739875765151E-4    0                        4.5299959028815477E-4
0.026666666666666616      0.026614046091420596     -0.7866666666666667      -7.576739875765158E-4    0                        4.529995902881647E-4
0.07999999999999996       0.026614046091420596     -0.7866666666666667      -0.0016546488668190854   0                        1.695455169689315E-4
0.1333333333333333        0.026614046091420596     -0.7866666666666667      -0.0025256170833176743   0                        -3.730769637459271E-4
-0.07999999999999996      0.07984213827426168      -0.7866666666666667      -0.0021634073283451423   0                        -1.5019200337778907E-4
-0.026666666666666616     0.07984213827426168      -0.7866666666666667      -0.0016521462201883328   0                        1.7065229712075663E-4
0.026666666666666616      0.07984213827426168      -0.7866666666666667      -0.0016521462201883328   0                        1.7065229712075663E-4
0.07999999999999996       0.07984213827426168      -0.7866666666666667      -0.0021634073283451423   0                        -1.5019200337778907E-4
-0.026666666666666616     0.13307023045710287      -0.7866666666666667      -0.002521612725304916    0                        -3.699717276162829E-4
0.026666666666666616      0.13307023045710287      -0.7866666666666667      -0.002521612725304916    0                        -3.699717276162829E-4
-0.026666666666666616     -0.23952641482278525     -0.7600000000000001      -0.004287058578949875    0                        -0.0012602076360837139
0.026666666666666616      -0.23952641482278525     -0.7600000000000001      -0.004287058578949875    0                        -0.0012602076360837139
-0.1333333333333333       -0.18629832263994395     -0.7600000000000001      -0.004181995168912351    0                        -0.001030092568067879
-0.07999999999999996      -0.18629832263994395     -0.7600000000000001      -0.0039056726196608233   0                        -5.264649243418063E-4
-0.026666666666666616     -0.18629832263994395     -0.7600000000000001      -0.0037243610914825392   0                        -2.6570802407114E-4
0.026666666666666616      -0.18629832263994395     -0.7600000000000001      -0.0037243610914825392   0                        -2.6570802407114E-4
0.07999999999999996       -0.18629832263994395     -0.7600000000000001      -0.0039056726196608116   0                        -5.264649243418199E-4
0.1333333333333333        -0.18629832263994395     -0.7600000000000001      -0.004181995168912346    0                        -0.0010300925680678885
-0.18666666666666665      -0.13307023045710287     -0.7600000000000001      -0.0041833198577326276   0                        -0.0010328888622320024
-0.1333333333333333       -0.13307023045710287     -0.7600000000000001      -0.0037266289236174556   0                        -2.688332880334611E-4
-0.07999999999999996      -0.13307023045710287     -0.7600000000000001      -0.0032334637356094677   0                        3.1339943434004463E-4
-0.026666666666666616     -0.13307023045710287     -0.7600000000000001      -0.0029107591715791786   0                        5.949077383690456E-4
0.026666666666666616      -0.13307023045710287     -0.7600000000000001      -0.0029107591715791786   0                        5.949077383690456E-4
0.07999999999999996       -0.13307023045710287     -0.7600000000000001      -0.0032334637356094677   0                        3.1339943434004463E-4
0.1333333333333333        -0.13307023045710287     -0.7600000000000001      -0.0037266289236174556   0                        -2.688332880334611E-4
0.18666666666666665       -0.13307023045710287     -0.7600000000000001      -0.0041833198577326215   0                        -0.0010328888622319423
-0.18666666666666665      -0.07984213827426168     -0.7600000000000001      -0.003909050558516094    0                        -5.315383557652992E-4
-0.1333333333333333       -0.07984213827426168     -0.7600000000000001      -0.0032357828925805346   0                        3.1079597474660667E-4
-0.07999999999999996      -0.07984213827426168     -0.7600000000000001      -0.002483633412167698    0                        9.195253407487138E-4
-0.026666666666666616     -0.07984213827426168     -0.7600000000000001      -0.0018958380707858678   0                        0.0012343833171604035
0.026666666666666616      -0.07984213827426168     -0.7600000000000001      -0.0018958380707858678   0                        0.0012343833171604035
0.07999999999999996       -0.07984213827426168     -0.7600000000000001      -0.002483633412167698    0                        9.195253407487138E-4
0.1333333333333333        -0.07984213827426168     -0.7600000000000001      -0.003235782892580536    0                        3.1079597474660716E-4
0.18666666666666665       -0.07984213827426168     -0.7600000000000001      -0.003909050558516094    0                        -5.315383557652992E-4
-0.24                     -0.026614046091420596    -0.7600000000000001      -0.004291061045434605    0                        -0.0012693212748314036
-0.18666666666666665      -0.026614046091420596    -0.7600000000000001      -0.003728893571326724    0                        -2.7195751530092815E-4
-0.1333333333333333       -0.026614046091420596    -0.7600000000000001      -0.0029147672839091947   0                        5.914358814860293E-4
-0.07999999999999996      -0.026614046091420596    -0.7600000000000001      -0.0018983471867517546   0                        0.0012331002223130796
-0.026666666666666616     -0.026614046091420596    -0.7600000000000001      -8.985024084205675E-4    0                        0.001602033596237771
0.026666666666666616      -0.026614046091420596    -0.7600000000000001      -8.985024084205675E-4    0                        0.0016020335962377721
0.07999999999999996       -0.026614046091420596    -0.7600000000000001      -0.001898347186751753    0                        0.0012331002223130887
0.1333333333333333        -0.026614046091420596    -0.7600000000000001      -0.0029147672839091947   0                        5.914358814860293E-4
0.18666666666666665       -0.026614046091420596    -0.7600000000000001      -0.003728893571326724    0                        -2.7195751530092815E-4
0.24                      -0.026614046091420596    -0.7600000000000001      -0.004291061045434621    0                        -0.0012693212748313516
-0.24                     0.026614046091420596     -0.7600000000000001      -0.004291061045434605    0                        -0.0012693212748314036
-0.18666666666666665      0.026614046091420596     -0.7600000000000001      -0.003728893571326724    0                        -2.7195751530092815E-4
-0.1333333333333333       0.026614046091420596     -0.7600000000000001      -0.0029147672839091947   0                        5.914358814860293E-4
-0.07999999999999996      0.026614046091420596     -0.7600000000000001      -0.0018983471867517546   0                        0.0012331002223130796
-0.026666666666666616     0.026614046091420596     -0.7600000000000001      -8.985024084205675E-4    0                        0.001602033596237771
0.026666666666666616      0.026614046091420596     -0.7600000000000001      -8.985024084205675E-4    0                        0.0016020335962377721
0.07999999999999996       0.026614046091420596     -0.7600000000000001      -0.001898347186751753    0                        0.0012331002223130887
0.1333333333333333        0.026614046091420596     -0.7600000000000001      -0.0029147672839091947   0                        5.914358814860293E-4
0.18666666666666665       0.026614046091420596     -0.7600000000000001      -0.003728893571326724    0                        -2.7195751530092815E-4
0.24                      0.026614046091420596     -0.7600000000000001      -0.004291061045434621    0                        -0.0012693212748313516
-0.18666666666666665      0.07984213827426168      -0.7600000000000001      -0.003909050558516094    0                        -5.315383557652992E-4
-0.1333333333333333       0.07984213827426168      -0.7600000000000001      -0.0032357828925805346   0                        3.1079597474660667E-4
-0.07999999999999996      0.07984213827426168      -0.7600000000000001      -0.002483633412167698    0                        9.195253407487138E-4
-0.026666666666666616     0.07984213827426168      -0.7600000000000001      -0.0018958380707858678   0                        0.0012343833171604035
0.026666666666666616      0.07984213827426168      -0.7600000000000001      -0.0018958380707858678   0                        0.0012343833171604035
0.07999999999999996       0.07984213827426168      -0.7600000000000001      -0.002483633412167698    0                        9.195253407487138E-4
0.1333333333333333        0.07984213827426168      -0.7600000000000001      -0.003235782892580536    0                        3.1079597474660716E-4
0.18666666666666665       0.07984213827426168      -0.7600000000000001      -0.003909050558516094    0                        -5.315383557652992E-4
-0.18666666666666665      0.13307023045710287      -0.7600000000000001      -0.0041833198577326276   0                        -0.0010328888622320024
-0.1333333333333333       0.13307023045710287      -0.7600000000000001      -0.0037266289236174556   0                        -2.688332880334611E-4
-0.07999999999999996      0.13307023045710287      -0.7600000000000001      -0.0032334637356094677   0                        3.1339943434004463E-4
-0.026666666666666616     0.13307023045710287      -0.7600000000000001      -0.0029107591715791786   0                        5.949077383690456E-4
0.026666666666666616      0.13307023045710287      -0.7600000000000001      -0.0029107591715791786   0                        5.949077383690456E-4
0.07999999999999996       0.13307023045710287      -0.7600000000000001      -0.0032334637356094677   0                        3.1339943434004463E-4
0.1333333333333333        0.13307023045710287      -0.7600000000000001      -0.0037266289236174556   0                        -2.688332880334611E-4
0.18666666666666665       0.13307023045710287      -0.7600000000000001      -0.0041833198577326215   0                        -0.0010328888622319423
-0.1333333333333333       0.18629832263994406      -0.7600000000000001      -0.004181995168912329    0                        -0.0010300925680679248
-0.07999999999999996      0.18629832263994406      -0.7600000000000001      -0.0039056726196608263   0                        -5.26464924341819E-4
-0.026666666666666616     0.18629832263994406      -0.7600000000000001      -0.0037243610914825514   0                        -2.6570802407114316E-4
0.026666666666666616      0.18629832263994406      -0.7600000000000001      -0.0037243610914825514   0                        -2.6570802407114316E-4
0.07999999999999996       0.18629832263994406      -0.7600000000000001      -0.0039056726196608263   0                        -5.26464924341819E-4
0.1333333333333333        0.18629832263994406      -0.7600000000000001      -0.004181995168912339    0                        -0.0010300925680678532
-0.026666666666666616     0.23952641482278525      -0.7600000000000001      -0.004287058578949875    0                        -0.0012602076360837139
0.026666666666666616      0.23952641482278525      -0.7600000000000001      -0.004287058578949875    0                        -0.0012602076360837139
-0.07999999999999996      -0.29275450700562633     -0.7333333333333334      -0.005266138960752826    0                        -0.0019500243051894825
-0.026666666666666616     -0.29275450700562633     -0.7333333333333334      -0.005232410245058343    0                        -0.0017367754070436072
0.026666666666666616      -0.29275450700562633     -0.7333333333333334      -0.005232410245058343    0                        -0.0017367754070436072
0.07999999999999996       -0.29275450700562633     -0.7333333333333334      -0.005266138960752826    0                        -0.0019500243051894825
-0.18666666666666665      -0.23952641482278525     -0.7333333333333334      -0.005266764501595933    0                        -0.001954181695130024
-0.1333333333333333       -0.23952641482278525     -0.7333333333333334      -0.005137964578335818    0                        -0.0012988546304756792
-0.07999999999999996      -0.23952641482278525     -0.7333333333333334      -0.004980914613943073    0                        -7.812208584924281E-4
-0.026666666666666616     -0.23952641482278525     -0.7333333333333334      -0.004889019283707485    0                        -5.288211708020751E-4
0.026666666666666616      -0.23952641482278525     -0.7333333333333334      -0.004889019283707485    0                        -5.288211708020751E-4
0.07999999999999996       -0.23952641482278525     -0.7333333333333334      -0.004980914613943073    0                        -7.812208584924281E-4
0.1333333333333333        -0.23952641482278525     -0.7333333333333334      -0.005137964578335818    0                        -0.0012988546304756792
0.18666666666666665       -0.23952641482278525     -0.7333333333333334      -0.005266764501595933    0                        -0.001954181695130024
-0.24                     -0.18629832263994395     -0.7333333333333334      -0.005267263879186202    0                        -0.001957506350820873
-0.18666666666666665      -0.18629832263994395     -0.7333333333333334      -0.00506870538199572     0                        -0.0010319206162742026
-0.1333333333333333       -0.18629832263994395     -0.7333333333333334      -0.00476843491499926     0                        -2.47191454060732E-4
-0.07999999999999996      -0.18629832263994395     -0.7333333333333334      -0.004459263571969266    0                        3.64201103543339E-4
-0.026666666666666616     -0.18629832263994395     -0.7333333333333334      -0.004241917007190168    0                        6.339413982209286E-4
0.026666666666666616      -0.18629832263994395     -0.7333333333333334      -0.004241917007190168    0                        6.339413982209286E-4
0.07999999999999996       -0.18629832263994395     -0.7333333333333334      -0.004459263571969265    0                        3.6420110354333843E-4
0.1333333333333333        -0.18629832263994395     -0.7333333333333334      -0.004768434914999259    0                        -2.471914540607318E-4
0.18666666666666665       -0.18629832263994395     -0.7333333333333334      -0.00506870538199572     0                        -0.0010319206162742026
0.24                      -0.18629832263994395     -0.7333333333333334      -0.005267263879186189    0                        -0.0019575063508208853
-0.24                     -0.13307023045710287     -0.7333333333333334      -0.005139868790864198    0                        -0.0013062188661526106
-0.18666666666666665      -0.13307023045710287     -0.7333333333333334      -0.004770157655808153    0                        -2.506316148569856E-4
-0.1333333333333333       -0.13307023045710287     -0.7333333333333334      -0.004244143105530193    0                        6.304428015066839E-4
-0.07999999999999996      -0.13307023045710287     -0.7333333333333334      -0.0036839048646960843   0                        0.0013511803120641608
-0.026666666666666616     -0.13307023045710287     -0.7333333333333334      -0.003331618683797328    0                        0.0016938525111700748
0.026666666666666616      -0.13307023045710287     -0.7333333333333334      -0.003331618683797328    0                        0.0016938525111700748
0.07999999999999996       -0.13307023045710287     -0.7333333333333334      -0.0036839048646960843   0                        0.0013511803120641608
0.1333333333333333        -0.13307023045710287     -0.7333333333333334      -0.004244143105530193    0                        6.304428015066839E-4
0.18666666666666665       -0.13307023045710287     -0.7333333333333334      -0.004770157655808154    0                        -2.5063161485698485E-4
0.24                      -0.13307023045710287     -0.7333333333333334      -0.005139868790864199    0                        -0.0013062188661526089
-0.2933333333333334       -0.07984213827426168     -0.7333333333333334      -0.005267886784914865    0                        -0.0019616606024355004
-0.24                     -0.07984213827426168     -0.7333333333333334      -0.0049840180424310975   0                        -7.900547578831082E-4
-0.18666666666666665      -0.07984213827426168     -0.7333333333333334      -0.004462506748829574    0                        3.5785753221195804E-4
-0.1333333333333333       -0.07984213827426168     -0.7333333333333334      -0.003686508296018627    0                        0.0013482414053293515
-0.07999999999999996      -0.07984213827426168     -0.7333333333333334      -0.0028522011872982823   0                        0.0020920304476515304
-0.026666666666666616     -0.07984213827426168     -0.7333333333333334      -0.0022010037111701965   0                        0.0025027735896396585
0.026666666666666616      -0.07984213827426168     -0.7333333333333334      -0.0022010037111701965   0                        0.0025027735896396585
0.07999999999999996       -0.07984213827426168     -0.7333333333333334      -0.0028522011872982823   0                        0.0020920304476515304
0.1333333333333333        -0.07984213827426168     -0.7333333333333334      -0.003686508296018626    0                        0.0013482414053293526
0.18666666666666665       -0.07984213827426168     -0.7333333333333334      -0.004462506748829574    0                        3.5785753221195804E-4
0.24                      -0.07984213827426168     -0.7333333333333334      -0.0049840180424310975   0                        -7.900547578831082E-4
0.29333333333333345       -0.07984213827426168     -0.7333333333333334      -0.005267886784914862    0                        -0.001961660602435489
-0.2933333333333334       -0.026614046091420596    -0.7333333333333334      -0.00523451781116764     0                        -0.0017495189394411924
-0.24                     -0.026614046091420596    -0.7333333333333334      -0.004892812883018796    0                        -5.3890370818659E-4
-0.18666666666666665      -0.026614046091420596    -0.7333333333333334      -0.00424636603828754     0                        6.269458957101766E-4
-0.1333333333333333       -0.026614046091420596    -0.7333333333333334      -0.003337105434366366    0                        0.001688575775935853
-0.07999999999999996      -0.026614046091420596    -0.7333333333333334      -0.0022045451930900583   0                        0.0025004665723454477
-0.026666666666666616     -0.026614046091420596    -0.7333333333333334      -0.001017442684679925    0                        0.002945145606366785
0.026666666666666616      -0.026614046091420596    -0.7333333333333334      -0.001017442684679925    0                        0.0029451456063667864
0.07999999999999996       -0.026614046091420596    -0.7333333333333334      -0.0022045451930900574   0                        0.002500466572345448
0.1333333333333333        -0.026614046091420596    -0.7333333333333334      -0.003337105434366366    0                        0.001688575775935853
0.18666666666666665       -0.026614046091420596    -0.7333333333333334      -0.00424636603828754     0                        6.269458957101766E-4
0.24                      -0.026614046091420596    -0.7333333333333334      -0.004892812883018813    0                        -5.38903708186624E-4
0.29333333333333345       -0.026614046091420596    -0.7333333333333334      -0.005234517811167635    0                        -0.0017495189394411887
-0.2933333333333334       0.026614046091420596     -0.7333333333333334      -0.00523451781116764     0                        -0.0017495189394411924
-0.24                     0.026614046091420596     -0.7333333333333334      -0.004892812883018796    0                        -5.3890370818659E-4
-0.18666666666666665      0.026614046091420596     -0.7333333333333334      -0.00424636603828754     0                        6.269458957101766E-4
-0.1333333333333333       0.026614046091420596     -0.7333333333333334      -0.003337105434366366    0                        0.001688575775935853
-0.07999999999999996      0.026614046091420596     -0.7333333333333334      -0.0022045451930900583   0                        0.0025004665723454477
-0.026666666666666616     0.026614046091420596     -0.7333333333333334      -0.001017442684679925    0                        0.002945145606366785
0.026666666666666616      0.026614046091420596     -0.7333333333333334      -0.001017442684679925    0                        0.0029451456063667864
0.07999999999999996       0.026614046091420596     -0.7333333333333334      -0.0022045451930900574   0                        0.002500466572345448
0.1333333333333333        0.026614046091420596     -0.7333333333333334      -0.003337105434366366    0                        0.001688575775935853
0.18666666666666665       0.026614046091420596     -0.7333333333333334      -0.00424636603828754     0                        6.269458957101766E-4
0.24                      0.026614046091420596     -0.7333333333333334      -0.004892812883018813    0                        -5.38903708186624E-4
0.29333333333333345       0.026614046091420596     -0.7333333333333334      -0.005234517811167635    0                        -0.0017495189394411887
-0.2933333333333334       0.07984213827426168      -0.7333333333333334      -0.005267886784914865    0                        -0.0019616606024355004
-0.24                     0.07984213827426168      -0.7333333333333334      -0.0049840180424310975   0                        -7.900547578831082E-4
-0.18666666666666665      0.07984213827426168      -0.7333333333333334      -0.004462506748829574    0                        3.5785753221195804E-4
-0.1333333333333333       0.07984213827426168      -0.7333333333333334      -0.003686508296018627    0                        0.0013482414053293515
-0.07999999999999996      0.07984213827426168      -0.7333333333333334      -0.0028522011872982823   0                        0.0020920304476515304
-0.026666666666666616     0.07984213827426168      -0.7333333333333334      -0.0022010037111701965   0                        0.0025027735896396585
0.026666666666666616      0.07984213827426168      -0.7333333333333334      -0.0022010037111701965   0                        0.0025027735896396585
0.07999999999999996       0.07984213827426168      -0.7333333333333334      -0.0028522011872982823   0                        0.0020920304476515304
0.1333333333333333        0.07984213827426168      -0.7333333333333334      -0.003686508296018626    0                        0.0013482414053293526
0.18666666666666665       0.07984213827426168      -0.7333333333333334      -0.004462506748829574    0                        3.5785753221195804E-4
0.24                      0.07984213827426168      -0.7333333333333334      -0.0049840180424310975   0                        -7.900547578831082E-4
0.29333333333333345       0.07984213827426168      -0.7333333333333334      -0.005267886784914862    0                        -0.001961660602435489
-0.24                     0.13307023045710287      -0.7333333333333334      -0.005139868790864198    0                        -0.0013062188661526106
-0.18666666666666665      0.13307023045710287      -0.7333333333333334      -0.004770157655808153    0                        -2.506316148569856E-4
-0.1333333333333333       0.13307023045710287      -0.7333333333333334      -0.004244143105530193    0                        6.304428015066839E-4
-0.07999999999999996      0.13307023045710287      -0.7333333333333334      -0.0036839048646960843   0                        0.0013511803120641608
-0.026666666666666616     0.13307023045710287      -0.7333333333333334      -0.003331618683797328    0                        0.0016938525111700748
0.026666666666666616      0.13307023045710287      -0.7333333333333334      -0.003331618683797328    0                        0.0016938525111700748
0.07999999999999996       0.13307023045710287      -0.7333333333333334      -0.0036839048646960843   0                        0.0013511803120641608
0.1333333333333333        0.13307023045710287      -0.7333333333333334      -0.004244143105530193    0                        6.304428015066839E-4
0.18666666666666665       0.13307023045710287      -0.7333333333333334      -0.004770157655808154    0                        -2.5063161485698485E-4
0.24                      0.13307023045710287      -0.7333333333333334      -0.005139868790864199    0                        -0.0013062188661526089
-0.24                     0.18629832263994406      -0.7333333333333334      -0.005267263879186213    0                        -0.0019575063508208753
-0.18666666666666665      0.18629832263994406      -0.7333333333333334      -0.005068705381995722    0                        -0.0010319206162742018
-0.1333333333333333       0.18629832263994406      -0.7333333333333334      -0.00476843491499926     0                        -2.471914540607337E-4
-0.07999999999999996      0.18629832263994406      -0.7333333333333334      -0.004459263571969267    0                        3.6420110354333675E-4
-0.026666666666666616     0.18629832263994406      -0.7333333333333334      -0.00424191700719018     0                        6.339413982209374E-4
0.026666666666666616      0.18629832263994406      -0.7333333333333334      -0.00424191700719018     0                        6.339413982209374E-4
0.07999999999999996       0.18629832263994406      -0.7333333333333334      -0.004459263571969267    0                        3.6420110354333675E-4
0.1333333333333333        0.18629832263994406      -0.7333333333333334      -0.004768434914999261    0                        -2.471914540607318E-4
0.18666666666666665       0.18629832263994406      -0.7333333333333334      -0.005068705381995722    0                        -0.0010319206162742018
0.24                      0.18629832263994406      -0.7333333333333334      -0.005267263879186213    0                        -0.0019575063508208753
-0.18666666666666665      0.23952641482278525      -0.7333333333333334      -0.005266764501595933    0                        -0.001954181695130024
-0.1333333333333333       0.23952641482278525      -0.7333333333333334      -0.005137964578335818    0                        -0.0012988546304756792
-0.07999999999999996      0.23952641482278525      -0.7333333333333334      -0.004980914613943073    0                        -7.812208584924281E-4
-0.026666666666666616     0.23952641482278525      -0.7333333333333334      -0.004889019283707485    0                        -5.288211708020751E-4
0.026666666666666616      0.23952641482278525      -0.7333333333333334      -0.004889019283707485    0                        -5.288211708020751E-4
0.07999999999999996       0.23952641482278525      -0.7333333333333334      -0.004980914613943073    0                        -7.812208584924281E-4
0.1333333333333333        0.23952641482278525      -0.7333333333333334      -0.005137964578335818    0                        -0.0012988546304756792
0.18666666666666665       0.23952641482278525      -0.7333333333333334      -0.005266764501595933    0                        -0.001954181695130024